<?xml version="1.0" encoding="UTF-8"?>

<!-- generated on 07/27/18 13:44:11 by SUMO Version 0.32.0
<?xml version="1.0" encoding="UTF-8"?>

<configuration xmlns:xsi="http://www.w3.org/2001/XMLSchema-instance" xsi:noNamespaceSchemaLocation="http://sumo.dlr.de/xsd/sumoConfiguration.xsd">

    <input>
        <net-file value="data/cross.net.xml"/>
        <route-files value="data/cross.rou.xml"/>
        <additional-files value="data/cross.det.xml"/>
    </input>

    <output>
        <tripinfo-output value="tripinfo.xml"/>
    </output>

    <time>
        <begin value="0"/>
    </time>

    <report>
        <verbose value="true"/>
        <no-step-log value="true"/>
    </report>

    <traci_server>
        <remote-port value="50142"/>
    </traci_server>

</configuration>
-->

<detector xmlns:xsi="http://www.w3.org/2001/XMLSchema-instance" xsi:noNamespaceSchemaLocation="http://sumo.dlr.de/xsd/det_e1_file.xsd">
    <interval begin="0.00" end="10.00" id="1" nVehContrib="0" flow="0.00" occupancy="0.00" speed="-1.00" length="-1.00" nVehEntered="0"/>
    <interval begin="0.00" end="10.00" id="2" nVehContrib="0" flow="0.00" occupancy="1.22" speed="-1.00" length="-1.00" nVehEntered="1"/>
    <interval begin="0.00" end="10.00" id="3" nVehContrib="0" flow="0.00" occupancy="0.00" speed="-1.00" length="-1.00" nVehEntered="0"/>
    <interval begin="0.00" end="10.00" id="4" nVehContrib="0" flow="0.00" occupancy="0.00" speed="-1.00" length="-1.00" nVehEntered="0"/>
    <interval begin="10.00" end="20.00" id="1" nVehContrib="2" flow="720.00" occupancy="16.80" speed="5.95" length="5.00" nVehEntered="2"/>
    <interval begin="10.00" end="20.00" id="2" nVehContrib="2" flow="720.00" occupancy="19.17" speed="6.03" length="5.00" nVehEntered="2"/>
    <interval begin="10.00" end="20.00" id="3" nVehContrib="0" flow="0.00" occupancy="0.00" speed="-1.00" length="-1.00" nVehEntered="0"/>
    <interval begin="10.00" end="20.00" id="4" nVehContrib="0" flow="0.00" occupancy="0.00" speed="-1.00" length="-1.00" nVehEntered="0"/>
    <interval begin="20.00" end="30.00" id="1" nVehContrib="1" flow="360.00" occupancy="8.18" speed="6.11" length="5.00" nVehEntered="1"/>
    <interval begin="20.00" end="30.00" id="2" nVehContrib="1" flow="360.00" occupancy="4.99" speed="5.69" length="5.00" nVehEntered="0"/>
    <interval begin="20.00" end="30.00" id="3" nVehContrib="0" flow="0.00" occupancy="0.00" speed="-1.00" length="-1.00" nVehEntered="0"/>
    <interval begin="20.00" end="30.00" id="4" nVehContrib="0" flow="0.00" occupancy="0.00" speed="-1.00" length="-1.00" nVehEntered="0"/>
    <interval begin="30.00" end="40.00" id="1" nVehContrib="0" flow="0.00" occupancy="0.00" speed="-1.00" length="-1.00" nVehEntered="0"/>
    <interval begin="30.00" end="40.00" id="2" nVehContrib="1" flow="360.00" occupancy="9.03" speed="5.54" length="5.00" nVehEntered="1"/>
    <interval begin="30.00" end="40.00" id="3" nVehContrib="0" flow="0.00" occupancy="0.00" speed="-1.00" length="-1.00" nVehEntered="0"/>
    <interval begin="30.00" end="40.00" id="4" nVehContrib="0" flow="0.00" occupancy="0.00" speed="-1.00" length="-1.00" nVehEntered="0"/>
    <interval begin="40.00" end="50.00" id="1" nVehContrib="0" flow="0.00" occupancy="0.00" speed="-1.00" length="-1.00" nVehEntered="0"/>
    <interval begin="40.00" end="50.00" id="2" nVehContrib="2" flow="720.00" occupancy="16.73" speed="5.99" length="5.00" nVehEntered="2"/>
    <interval begin="40.00" end="50.00" id="3" nVehContrib="0" flow="0.00" occupancy="0.00" speed="-1.00" length="-1.00" nVehEntered="0"/>
    <interval begin="40.00" end="50.00" id="4" nVehContrib="0" flow="0.00" occupancy="0.00" speed="-1.00" length="-1.00" nVehEntered="0"/>
    <interval begin="50.00" end="60.00" id="1" nVehContrib="1" flow="360.00" occupancy="8.99" speed="5.56" length="5.00" nVehEntered="1"/>
    <interval begin="50.00" end="60.00" id="2" nVehContrib="2" flow="720.00" occupancy="18.63" speed="5.38" length="5.00" nVehEntered="2"/>
    <interval begin="50.00" end="60.00" id="3" nVehContrib="0" flow="0.00" occupancy="0.00" speed="-1.00" length="-1.00" nVehEntered="0"/>
    <interval begin="50.00" end="60.00" id="4" nVehContrib="0" flow="0.00" occupancy="0.00" speed="-1.00" length="-1.00" nVehEntered="0"/>
    <interval begin="60.00" end="70.00" id="1" nVehContrib="1" flow="360.00" occupancy="8.93" speed="5.60" length="5.00" nVehEntered="1"/>
    <interval begin="60.00" end="70.00" id="2" nVehContrib="1" flow="360.00" occupancy="8.13" speed="6.15" length="5.00" nVehEntered="1"/>
    <interval begin="60.00" end="70.00" id="3" nVehContrib="0" flow="0.00" occupancy="0.00" speed="-1.00" length="-1.00" nVehEntered="0"/>
    <interval begin="60.00" end="70.00" id="4" nVehContrib="0" flow="0.00" occupancy="0.00" speed="-1.00" length="-1.00" nVehEntered="0"/>
    <interval begin="70.00" end="80.00" id="1" nVehContrib="2" flow="720.00" occupancy="17.44" speed="5.73" length="5.00" nVehEntered="2"/>
    <interval begin="70.00" end="80.00" id="2" nVehContrib="0" flow="0.00" occupancy="0.00" speed="-1.00" length="-1.00" nVehEntered="0"/>
    <interval begin="70.00" end="80.00" id="3" nVehContrib="0" flow="0.00" occupancy="0.00" speed="-1.00" length="-1.00" nVehEntered="0"/>
    <interval begin="70.00" end="80.00" id="4" nVehContrib="0" flow="0.00" occupancy="0.00" speed="-1.00" length="-1.00" nVehEntered="0"/>
    <interval begin="80.00" end="90.00" id="1" nVehContrib="0" flow="0.00" occupancy="0.00" speed="-1.00" length="-1.00" nVehEntered="0"/>
    <interval begin="80.00" end="90.00" id="2" nVehContrib="0" flow="0.00" occupancy="0.00" speed="-1.00" length="-1.00" nVehEntered="0"/>
    <interval begin="80.00" end="90.00" id="3" nVehContrib="0" flow="0.00" occupancy="0.00" speed="-1.00" length="-1.00" nVehEntered="0"/>
    <interval begin="80.00" end="90.00" id="4" nVehContrib="0" flow="0.00" occupancy="0.00" speed="-1.00" length="-1.00" nVehEntered="0"/>
    <interval begin="90.00" end="100.00" id="1" nVehContrib="1" flow="360.00" occupancy="8.61" speed="5.81" length="5.00" nVehEntered="1"/>
    <interval begin="90.00" end="100.00" id="2" nVehContrib="1" flow="360.00" occupancy="9.48" speed="5.27" length="5.00" nVehEntered="1"/>
    <interval begin="90.00" end="100.00" id="3" nVehContrib="0" flow="0.00" occupancy="0.00" speed="-1.00" length="-1.00" nVehEntered="0"/>
    <interval begin="90.00" end="100.00" id="4" nVehContrib="1" flow="360.00" occupancy="12.03" speed="5.82" length="7.00" nVehEntered="1"/>
    <interval begin="100.00" end="110.00" id="1" nVehContrib="1" flow="360.00" occupancy="8.78" speed="5.70" length="5.00" nVehEntered="1"/>
    <interval begin="100.00" end="110.00" id="2" nVehContrib="1" flow="360.00" occupancy="8.49" speed="5.89" length="5.00" nVehEntered="1"/>
    <interval begin="100.00" end="110.00" id="3" nVehContrib="0" flow="0.00" occupancy="0.00" speed="-1.00" length="-1.00" nVehEntered="0"/>
    <interval begin="100.00" end="110.00" id="4" nVehContrib="1" flow="360.00" occupancy="12.43" speed="5.63" length="7.00" nVehEntered="1"/>
    <interval begin="110.00" end="120.00" id="1" nVehContrib="1" flow="360.00" occupancy="8.63" speed="5.79" length="5.00" nVehEntered="1"/>
    <interval begin="110.00" end="120.00" id="2" nVehContrib="0" flow="0.00" occupancy="0.00" speed="-1.00" length="-1.00" nVehEntered="0"/>
    <interval begin="110.00" end="120.00" id="3" nVehContrib="0" flow="0.00" occupancy="0.00" speed="-1.00" length="-1.00" nVehEntered="0"/>
    <interval begin="110.00" end="120.00" id="4" nVehContrib="0" flow="0.00" occupancy="0.00" speed="-1.00" length="-1.00" nVehEntered="0"/>
    <interval begin="120.00" end="130.00" id="1" nVehContrib="1" flow="360.00" occupancy="8.18" speed="6.11" length="5.00" nVehEntered="1"/>
    <interval begin="120.00" end="130.00" id="2" nVehContrib="0" flow="0.00" occupancy="0.00" speed="-1.00" length="-1.00" nVehEntered="0"/>
    <interval begin="120.00" end="130.00" id="3" nVehContrib="0" flow="0.00" occupancy="0.00" speed="-1.00" length="-1.00" nVehEntered="0"/>
    <interval begin="120.00" end="130.00" id="4" nVehContrib="0" flow="0.00" occupancy="0.00" speed="-1.00" length="-1.00" nVehEntered="0"/>
    <interval begin="130.00" end="140.00" id="1" nVehContrib="1" flow="360.00" occupancy="8.82" speed="5.67" length="5.00" nVehEntered="1"/>
    <interval begin="130.00" end="140.00" id="2" nVehContrib="0" flow="0.00" occupancy="0.00" speed="-1.00" length="-1.00" nVehEntered="0"/>
    <interval begin="130.00" end="140.00" id="3" nVehContrib="0" flow="0.00" occupancy="0.00" speed="-1.00" length="-1.00" nVehEntered="0"/>
    <interval begin="130.00" end="140.00" id="4" nVehContrib="1" flow="360.00" occupancy="11.63" speed="6.02" length="7.00" nVehEntered="1"/>
    <interval begin="140.00" end="150.00" id="1" nVehContrib="0" flow="0.00" occupancy="0.00" speed="-1.00" length="-1.00" nVehEntered="0"/>
    <interval begin="140.00" end="150.00" id="2" nVehContrib="2" flow="720.00" occupancy="17.29" speed="5.79" length="5.00" nVehEntered="2"/>
    <interval begin="140.00" end="150.00" id="3" nVehContrib="0" flow="0.00" occupancy="0.00" speed="-1.00" length="-1.00" nVehEntered="0"/>
    <interval begin="140.00" end="150.00" id="4" nVehContrib="0" flow="0.00" occupancy="0.00" speed="-1.00" length="-1.00" nVehEntered="0"/>
    <interval begin="150.00" end="160.00" id="1" nVehContrib="1" flow="360.00" occupancy="8.27" speed="6.04" length="5.00" nVehEntered="1"/>
    <interval begin="150.00" end="160.00" id="2" nVehContrib="2" flow="720.00" occupancy="16.96" speed="5.90" length="5.00" nVehEntered="2"/>
    <interval begin="150.00" end="160.00" id="3" nVehContrib="0" flow="0.00" occupancy="0.00" speed="-1.00" length="-1.00" nVehEntered="0"/>
    <interval begin="150.00" end="160.00" id="4" nVehContrib="0" flow="0.00" occupancy="0.00" speed="-1.00" length="-1.00" nVehEntered="0"/>
    <interval begin="160.00" end="170.00" id="1" nVehContrib="0" flow="0.00" occupancy="0.00" speed="-1.00" length="-1.00" nVehEntered="0"/>
    <interval begin="160.00" end="170.00" id="2" nVehContrib="2" flow="720.00" occupancy="16.86" speed="5.93" length="5.00" nVehEntered="2"/>
    <interval begin="160.00" end="170.00" id="3" nVehContrib="0" flow="0.00" occupancy="0.00" speed="-1.00" length="-1.00" nVehEntered="0"/>
    <interval begin="160.00" end="170.00" id="4" nVehContrib="0" flow="0.00" occupancy="0.00" speed="-1.00" length="-1.00" nVehEntered="0"/>
    <interval begin="170.00" end="180.00" id="1" nVehContrib="1" flow="360.00" occupancy="9.15" speed="5.46" length="5.00" nVehEntered="1"/>
    <interval begin="170.00" end="180.00" id="2" nVehContrib="2" flow="720.00" occupancy="17.39" speed="5.75" length="5.00" nVehEntered="2"/>
    <interval begin="170.00" end="180.00" id="3" nVehContrib="0" flow="0.00" occupancy="0.00" speed="-1.00" length="-1.00" nVehEntered="0"/>
    <interval begin="170.00" end="180.00" id="4" nVehContrib="0" flow="0.00" occupancy="0.00" speed="-1.00" length="-1.00" nVehEntered="0"/>
    <interval begin="180.00" end="190.00" id="1" nVehContrib="2" flow="720.00" occupancy="17.42" speed="5.74" length="5.00" nVehEntered="2"/>
    <interval begin="180.00" end="190.00" id="2" nVehContrib="1" flow="360.00" occupancy="11.47" speed="5.64" length="5.00" nVehEntered="2"/>
    <interval begin="180.00" end="190.00" id="3" nVehContrib="0" flow="0.00" occupancy="0.00" speed="-1.00" length="-1.00" nVehEntered="0"/>
    <interval begin="180.00" end="190.00" id="4" nVehContrib="1" flow="360.00" occupancy="12.20" speed="5.74" length="7.00" nVehEntered="1"/>
    <interval begin="190.00" end="200.00" id="1" nVehContrib="2" flow="720.00" occupancy="17.46" speed="5.73" length="5.00" nVehEntered="2"/>
    <interval begin="190.00" end="200.00" id="2" nVehContrib="1" flow="360.00" occupancy="6.28" speed="5.63" length="5.00" nVehEntered="0"/>
    <interval begin="190.00" end="200.00" id="3" nVehContrib="0" flow="0.00" occupancy="0.00" speed="-1.00" length="-1.00" nVehEntered="0"/>
    <interval begin="190.00" end="200.00" id="4" nVehContrib="0" flow="0.00" occupancy="0.00" speed="-1.00" length="-1.00" nVehEntered="0"/>
    <interval begin="200.00" end="210.00" id="1" nVehContrib="0" flow="0.00" occupancy="0.00" speed="-1.00" length="-1.00" nVehEntered="0"/>
    <interval begin="200.00" end="210.00" id="2" nVehContrib="1" flow="360.00" occupancy="17.87" speed="5.49" length="5.00" nVehEntered="2"/>
    <interval begin="200.00" end="210.00" id="3" nVehContrib="0" flow="0.00" occupancy="0.00" speed="-1.00" length="-1.00" nVehEntered="0"/>
    <interval begin="200.00" end="210.00" id="4" nVehContrib="0" flow="0.00" occupancy="0.00" speed="-1.00" length="-1.00" nVehEntered="0"/>
    <interval begin="210.00" end="220.00" id="1" nVehContrib="1" flow="360.00" occupancy="8.65" speed="5.78" length="5.00" nVehEntered="1"/>
    <interval begin="210.00" end="220.00" id="2" nVehContrib="2" flow="720.00" occupancy="8.85" speed="5.70" length="5.00" nVehEntered="1"/>
    <interval begin="210.00" end="220.00" id="3" nVehContrib="0" flow="0.00" occupancy="0.00" speed="-1.00" length="-1.00" nVehEntered="0"/>
    <interval begin="210.00" end="220.00" id="4" nVehContrib="0" flow="0.00" occupancy="0.00" speed="-1.00" length="-1.00" nVehEntered="0"/>
    <interval begin="220.00" end="230.00" id="1" nVehContrib="1" flow="360.00" occupancy="8.05" speed="6.21" length="5.00" nVehEntered="1"/>
    <interval begin="220.00" end="230.00" id="2" nVehContrib="1" flow="360.00" occupancy="13.18" speed="5.57" length="5.00" nVehEntered="2"/>
    <interval begin="220.00" end="230.00" id="3" nVehContrib="0" flow="0.00" occupancy="0.00" speed="-1.00" length="-1.00" nVehEntered="0"/>
    <interval begin="220.00" end="230.00" id="4" nVehContrib="0" flow="0.00" occupancy="0.00" speed="-1.00" length="-1.00" nVehEntered="0"/>
    <interval begin="230.00" end="240.00" id="1" nVehContrib="1" flow="360.00" occupancy="8.05" speed="6.21" length="5.00" nVehEntered="1"/>
    <interval begin="230.00" end="240.00" id="2" nVehContrib="1" flow="360.00" occupancy="4.71" speed="5.61" length="5.00" nVehEntered="0"/>
    <interval begin="230.00" end="240.00" id="3" nVehContrib="0" flow="0.00" occupancy="0.00" speed="-1.00" length="-1.00" nVehEntered="0"/>
    <interval begin="230.00" end="240.00" id="4" nVehContrib="0" flow="0.00" occupancy="0.00" speed="-1.00" length="-1.00" nVehEntered="0"/>
    <interval begin="240.00" end="250.00" id="1" nVehContrib="0" flow="0.00" occupancy="3.43" speed="-1.00" length="-1.00" nVehEntered="1"/>
    <interval begin="240.00" end="250.00" id="2" nVehContrib="2" flow="720.00" occupancy="16.80" speed="5.95" length="5.00" nVehEntered="2"/>
    <interval begin="240.00" end="250.00" id="3" nVehContrib="0" flow="0.00" occupancy="0.00" speed="-1.00" length="-1.00" nVehEntered="0"/>
    <interval begin="240.00" end="250.00" id="4" nVehContrib="0" flow="0.00" occupancy="0.00" speed="-1.00" length="-1.00" nVehEntered="0"/>
    <interval begin="250.00" end="260.00" id="1" nVehContrib="1" flow="360.00" occupancy="4.88" speed="6.02" length="5.00" nVehEntered="0"/>
    <interval begin="250.00" end="260.00" id="2" nVehContrib="0" flow="0.00" occupancy="0.00" speed="-1.00" length="-1.00" nVehEntered="0"/>
    <interval begin="250.00" end="260.00" id="3" nVehContrib="0" flow="0.00" occupancy="0.00" speed="-1.00" length="-1.00" nVehEntered="0"/>
    <interval begin="250.00" end="260.00" id="4" nVehContrib="0" flow="0.00" occupancy="0.00" speed="-1.00" length="-1.00" nVehEntered="0"/>
    <interval begin="260.00" end="270.00" id="1" nVehContrib="0" flow="0.00" occupancy="0.00" speed="-1.00" length="-1.00" nVehEntered="0"/>
    <interval begin="260.00" end="270.00" id="2" nVehContrib="0" flow="0.00" occupancy="0.00" speed="-1.00" length="-1.00" nVehEntered="0"/>
    <interval begin="260.00" end="270.00" id="3" nVehContrib="0" flow="0.00" occupancy="0.00" speed="-1.00" length="-1.00" nVehEntered="0"/>
    <interval begin="260.00" end="270.00" id="4" nVehContrib="0" flow="0.00" occupancy="0.00" speed="-1.00" length="-1.00" nVehEntered="0"/>
    <interval begin="270.00" end="280.00" id="1" nVehContrib="0" flow="0.00" occupancy="0.00" speed="-1.00" length="-1.00" nVehEntered="0"/>
    <interval begin="270.00" end="280.00" id="2" nVehContrib="0" flow="0.00" occupancy="0.00" speed="-1.00" length="-1.00" nVehEntered="0"/>
    <interval begin="270.00" end="280.00" id="3" nVehContrib="0" flow="0.00" occupancy="0.00" speed="-1.00" length="-1.00" nVehEntered="0"/>
    <interval begin="270.00" end="280.00" id="4" nVehContrib="0" flow="0.00" occupancy="0.00" speed="-1.00" length="-1.00" nVehEntered="0"/>
    <interval begin="280.00" end="290.00" id="1" nVehContrib="0" flow="0.00" occupancy="0.00" speed="-1.00" length="-1.00" nVehEntered="0"/>
    <interval begin="280.00" end="290.00" id="2" nVehContrib="2" flow="720.00" occupancy="18.04" speed="5.54" length="5.00" nVehEntered="2"/>
    <interval begin="280.00" end="290.00" id="3" nVehContrib="0" flow="0.00" occupancy="0.00" speed="-1.00" length="-1.00" nVehEntered="0"/>
    <interval begin="280.00" end="290.00" id="4" nVehContrib="0" flow="0.00" occupancy="0.00" speed="-1.00" length="-1.00" nVehEntered="0"/>
    <interval begin="290.00" end="300.00" id="1" nVehContrib="1" flow="360.00" occupancy="8.73" speed="5.73" length="5.00" nVehEntered="1"/>
    <interval begin="290.00" end="300.00" id="2" nVehContrib="0" flow="0.00" occupancy="0.00" speed="-1.00" length="-1.00" nVehEntered="0"/>
    <interval begin="290.00" end="300.00" id="3" nVehContrib="0" flow="0.00" occupancy="0.00" speed="-1.00" length="-1.00" nVehEntered="0"/>
    <interval begin="290.00" end="300.00" id="4" nVehContrib="0" flow="0.00" occupancy="0.00" speed="-1.00" length="-1.00" nVehEntered="0"/>
    <interval begin="300.00" end="310.00" id="1" nVehContrib="2" flow="720.00" occupancy="17.03" speed="5.87" length="5.00" nVehEntered="2"/>
    <interval begin="300.00" end="310.00" id="2" nVehContrib="0" flow="0.00" occupancy="0.00" speed="-1.00" length="-1.00" nVehEntered="0"/>
    <interval begin="300.00" end="310.00" id="3" nVehContrib="0" flow="0.00" occupancy="0.00" speed="-1.00" length="-1.00" nVehEntered="0"/>
    <interval begin="300.00" end="310.00" id="4" nVehContrib="0" flow="0.00" occupancy="0.00" speed="-1.00" length="-1.00" nVehEntered="0"/>
    <interval begin="310.00" end="320.00" id="1" nVehContrib="2" flow="720.00" occupancy="17.16" speed="5.83" length="5.00" nVehEntered="2"/>
    <interval begin="310.00" end="320.00" id="2" nVehContrib="0" flow="0.00" occupancy="0.00" speed="-1.00" length="-1.00" nVehEntered="0"/>
    <interval begin="310.00" end="320.00" id="3" nVehContrib="0" flow="0.00" occupancy="0.00" speed="-1.00" length="-1.00" nVehEntered="0"/>
    <interval begin="310.00" end="320.00" id="4" nVehContrib="0" flow="0.00" occupancy="0.00" speed="-1.00" length="-1.00" nVehEntered="0"/>
    <interval begin="320.00" end="330.00" id="1" nVehContrib="0" flow="0.00" occupancy="0.00" speed="-1.00" length="-1.00" nVehEntered="0"/>
    <interval begin="320.00" end="330.00" id="2" nVehContrib="0" flow="0.00" occupancy="0.00" speed="-1.00" length="-1.00" nVehEntered="0"/>
    <interval begin="320.00" end="330.00" id="3" nVehContrib="0" flow="0.00" occupancy="0.00" speed="-1.00" length="-1.00" nVehEntered="0"/>
    <interval begin="320.00" end="330.00" id="4" nVehContrib="1" flow="360.00" occupancy="12.80" speed="5.47" length="7.00" nVehEntered="1"/>
    <interval begin="330.00" end="340.00" id="1" nVehContrib="1" flow="360.00" occupancy="9.08" speed="5.51" length="5.00" nVehEntered="1"/>
    <interval begin="330.00" end="340.00" id="2" nVehContrib="0" flow="0.00" occupancy="0.00" speed="-1.00" length="-1.00" nVehEntered="0"/>
    <interval begin="330.00" end="340.00" id="3" nVehContrib="0" flow="0.00" occupancy="0.00" speed="-1.00" length="-1.00" nVehEntered="0"/>
    <interval begin="330.00" end="340.00" id="4" nVehContrib="0" flow="0.00" occupancy="0.00" speed="-1.00" length="-1.00" nVehEntered="0"/>
    <interval begin="340.00" end="350.00" id="1" nVehContrib="0" flow="0.00" occupancy="0.00" speed="-1.00" length="-1.00" nVehEntered="0"/>
    <interval begin="340.00" end="350.00" id="2" nVehContrib="1" flow="360.00" occupancy="8.87" speed="5.64" length="5.00" nVehEntered="1"/>
    <interval begin="340.00" end="350.00" id="3" nVehContrib="0" flow="0.00" occupancy="0.00" speed="-1.00" length="-1.00" nVehEntered="0"/>
    <interval begin="340.00" end="350.00" id="4" nVehContrib="2" flow="720.00" occupancy="25.45" speed="5.50" length="7.00" nVehEntered="2"/>
    <interval begin="350.00" end="360.00" id="1" nVehContrib="1" flow="360.00" occupancy="8.86" speed="5.64" length="5.00" nVehEntered="1"/>
    <interval begin="350.00" end="360.00" id="2" nVehContrib="2" flow="720.00" occupancy="17.11" speed="5.85" length="5.00" nVehEntered="2"/>
    <interval begin="350.00" end="360.00" id="3" nVehContrib="0" flow="0.00" occupancy="0.00" speed="-1.00" length="-1.00" nVehEntered="0"/>
    <interval begin="350.00" end="360.00" id="4" nVehContrib="1" flow="360.00" occupancy="13.49" speed="5.19" length="7.00" nVehEntered="1"/>
    <interval begin="360.00" end="370.00" id="1" nVehContrib="1" flow="360.00" occupancy="8.68" speed="5.76" length="5.00" nVehEntered="1"/>
    <interval begin="360.00" end="370.00" id="2" nVehContrib="0" flow="0.00" occupancy="0.00" speed="-1.00" length="-1.00" nVehEntered="0"/>
    <interval begin="360.00" end="370.00" id="3" nVehContrib="0" flow="0.00" occupancy="0.00" speed="-1.00" length="-1.00" nVehEntered="0"/>
    <interval begin="360.00" end="370.00" id="4" nVehContrib="0" flow="0.00" occupancy="0.00" speed="-1.00" length="-1.00" nVehEntered="0"/>
    <interval begin="370.00" end="380.00" id="1" nVehContrib="0" flow="0.00" occupancy="0.00" speed="-1.00" length="-1.00" nVehEntered="0"/>
    <interval begin="370.00" end="380.00" id="2" nVehContrib="0" flow="0.00" occupancy="0.00" speed="-1.00" length="-1.00" nVehEntered="0"/>
    <interval begin="370.00" end="380.00" id="3" nVehContrib="0" flow="0.00" occupancy="0.00" speed="-1.00" length="-1.00" nVehEntered="0"/>
    <interval begin="370.00" end="380.00" id="4" nVehContrib="0" flow="0.00" occupancy="0.00" speed="-1.00" length="-1.00" nVehEntered="0"/>
    <interval begin="380.00" end="390.00" id="1" nVehContrib="1" flow="360.00" occupancy="8.45" speed="5.92" length="5.00" nVehEntered="1"/>
    <interval begin="380.00" end="390.00" id="2" nVehContrib="0" flow="0.00" occupancy="0.00" speed="-1.00" length="-1.00" nVehEntered="0"/>
    <interval begin="380.00" end="390.00" id="3" nVehContrib="0" flow="0.00" occupancy="0.00" speed="-1.00" length="-1.00" nVehEntered="0"/>
    <interval begin="380.00" end="390.00" id="4" nVehContrib="1" flow="360.00" occupancy="12.02" speed="5.83" length="7.00" nVehEntered="1"/>
    <interval begin="390.00" end="400.00" id="1" nVehContrib="1" flow="360.00" occupancy="8.52" speed="5.87" length="5.00" nVehEntered="1"/>
    <interval begin="390.00" end="400.00" id="2" nVehContrib="1" flow="360.00" occupancy="8.91" speed="5.61" length="5.00" nVehEntered="1"/>
    <interval begin="390.00" end="400.00" id="3" nVehContrib="0" flow="0.00" occupancy="0.00" speed="-1.00" length="-1.00" nVehEntered="0"/>
    <interval begin="390.00" end="400.00" id="4" nVehContrib="1" flow="360.00" occupancy="12.69" speed="5.52" length="7.00" nVehEntered="1"/>
    <interval begin="400.00" end="410.00" id="1" nVehContrib="1" flow="360.00" occupancy="16.77" speed="5.87" length="5.00" nVehEntered="2"/>
    <interval begin="400.00" end="410.00" id="2" nVehContrib="1" flow="360.00" occupancy="8.57" speed="5.84" length="5.00" nVehEntered="1"/>
    <interval begin="400.00" end="410.00" id="3" nVehContrib="0" flow="0.00" occupancy="0.00" speed="-1.00" length="-1.00" nVehEntered="0"/>
    <interval begin="400.00" end="410.00" id="4" nVehContrib="1" flow="360.00" occupancy="12.52" speed="5.59" length="7.00" nVehEntered="1"/>
    <interval begin="410.00" end="420.00" id="1" nVehContrib="1" flow="360.00" occupancy="0.99" speed="5.41" length="5.00" nVehEntered="0"/>
    <interval begin="410.00" end="420.00" id="2" nVehContrib="1" flow="360.00" occupancy="9.14" speed="5.47" length="5.00" nVehEntered="1"/>
    <interval begin="410.00" end="420.00" id="3" nVehContrib="0" flow="0.00" occupancy="0.00" speed="-1.00" length="-1.00" nVehEntered="0"/>
    <interval begin="410.00" end="420.00" id="4" nVehContrib="0" flow="0.00" occupancy="0.00" speed="-1.00" length="-1.00" nVehEntered="0"/>
    <interval begin="420.00" end="430.00" id="1" nVehContrib="1" flow="360.00" occupancy="8.23" speed="6.07" length="5.00" nVehEntered="1"/>
    <interval begin="420.00" end="430.00" id="2" nVehContrib="2" flow="720.00" occupancy="17.46" speed="5.73" length="5.00" nVehEntered="2"/>
    <interval begin="420.00" end="430.00" id="3" nVehContrib="0" flow="0.00" occupancy="0.00" speed="-1.00" length="-1.00" nVehEntered="0"/>
    <interval begin="420.00" end="430.00" id="4" nVehContrib="0" flow="0.00" occupancy="0.00" speed="-1.00" length="-1.00" nVehEntered="0"/>
    <interval begin="430.00" end="440.00" id="1" nVehContrib="1" flow="360.00" occupancy="9.08" speed="5.51" length="5.00" nVehEntered="1"/>
    <interval begin="430.00" end="440.00" id="2" nVehContrib="1" flow="360.00" occupancy="8.78" speed="5.70" length="5.00" nVehEntered="1"/>
    <interval begin="430.00" end="440.00" id="3" nVehContrib="0" flow="0.00" occupancy="0.00" speed="-1.00" length="-1.00" nVehEntered="0"/>
    <interval begin="430.00" end="440.00" id="4" nVehContrib="0" flow="0.00" occupancy="0.00" speed="-1.00" length="-1.00" nVehEntered="0"/>
    <interval begin="440.00" end="450.00" id="1" nVehContrib="0" flow="0.00" occupancy="0.00" speed="-1.00" length="-1.00" nVehEntered="0"/>
    <interval begin="440.00" end="450.00" id="2" nVehContrib="0" flow="0.00" occupancy="0.00" speed="-1.00" length="-1.00" nVehEntered="0"/>
    <interval begin="440.00" end="450.00" id="3" nVehContrib="0" flow="0.00" occupancy="0.00" speed="-1.00" length="-1.00" nVehEntered="0"/>
    <interval begin="440.00" end="450.00" id="4" nVehContrib="0" flow="0.00" occupancy="0.00" speed="-1.00" length="-1.00" nVehEntered="0"/>
    <interval begin="450.00" end="460.00" id="1" nVehContrib="0" flow="0.00" occupancy="0.00" speed="-1.00" length="-1.00" nVehEntered="0"/>
    <interval begin="450.00" end="460.00" id="2" nVehContrib="0" flow="0.00" occupancy="0.00" speed="-1.00" length="-1.00" nVehEntered="0"/>
    <interval begin="450.00" end="460.00" id="3" nVehContrib="0" flow="0.00" occupancy="0.00" speed="-1.00" length="-1.00" nVehEntered="0"/>
    <interval begin="450.00" end="460.00" id="4" nVehContrib="0" flow="0.00" occupancy="0.00" speed="-1.00" length="-1.00" nVehEntered="0"/>
    <interval begin="460.00" end="470.00" id="1" nVehContrib="1" flow="360.00" occupancy="8.76" speed="5.71" length="5.00" nVehEntered="1"/>
    <interval begin="460.00" end="470.00" id="2" nVehContrib="0" flow="0.00" occupancy="0.00" speed="-1.00" length="-1.00" nVehEntered="0"/>
    <interval begin="460.00" end="470.00" id="3" nVehContrib="0" flow="0.00" occupancy="0.00" speed="-1.00" length="-1.00" nVehEntered="0"/>
    <interval begin="460.00" end="470.00" id="4" nVehContrib="1" flow="360.00" occupancy="13.29" speed="5.27" length="7.00" nVehEntered="1"/>
    <interval begin="470.00" end="480.00" id="1" nVehContrib="2" flow="720.00" occupancy="17.22" speed="5.81" length="5.00" nVehEntered="2"/>
    <interval begin="470.00" end="480.00" id="2" nVehContrib="0" flow="0.00" occupancy="0.00" speed="-1.00" length="-1.00" nVehEntered="0"/>
    <interval begin="470.00" end="480.00" id="3" nVehContrib="0" flow="0.00" occupancy="0.00" speed="-1.00" length="-1.00" nVehEntered="0"/>
    <interval begin="470.00" end="480.00" id="4" nVehContrib="2" flow="720.00" occupancy="25.46" speed="5.50" length="7.00" nVehEntered="2"/>
    <interval begin="480.00" end="490.00" id="1" nVehContrib="2" flow="720.00" occupancy="16.78" speed="5.96" length="5.00" nVehEntered="2"/>
    <interval begin="480.00" end="490.00" id="2" nVehContrib="2" flow="720.00" occupancy="18.05" speed="5.56" length="5.00" nVehEntered="2"/>
    <interval begin="480.00" end="490.00" id="3" nVehContrib="0" flow="0.00" occupancy="0.00" speed="-1.00" length="-1.00" nVehEntered="0"/>
    <interval begin="480.00" end="490.00" id="4" nVehContrib="0" flow="0.00" occupancy="0.00" speed="-1.00" length="-1.00" nVehEntered="0"/>
    <interval begin="490.00" end="500.00" id="1" nVehContrib="1" flow="360.00" occupancy="9.06" speed="5.52" length="5.00" nVehEntered="1"/>
    <interval begin="490.00" end="500.00" id="2" nVehContrib="1" flow="360.00" occupancy="8.36" speed="5.98" length="5.00" nVehEntered="1"/>
    <interval begin="490.00" end="500.00" id="3" nVehContrib="0" flow="0.00" occupancy="0.00" speed="-1.00" length="-1.00" nVehEntered="0"/>
    <interval begin="490.00" end="500.00" id="4" nVehContrib="0" flow="0.00" occupancy="0.00" speed="-1.00" length="-1.00" nVehEntered="0"/>
    <interval begin="500.00" end="510.00" id="1" nVehContrib="2" flow="720.00" occupancy="17.53" speed="5.71" length="5.00" nVehEntered="2"/>
    <interval begin="500.00" end="510.00" id="2" nVehContrib="2" flow="720.00" occupancy="16.67" speed="6.01" length="5.00" nVehEntered="2"/>
    <interval begin="500.00" end="510.00" id="3" nVehContrib="0" flow="0.00" occupancy="0.00" speed="-1.00" length="-1.00" nVehEntered="0"/>
    <interval begin="500.00" end="510.00" id="4" nVehContrib="0" flow="0.00" occupancy="0.00" speed="-1.00" length="-1.00" nVehEntered="0"/>
    <interval begin="510.00" end="520.00" id="1" nVehContrib="1" flow="360.00" occupancy="8.72" speed="5.73" length="5.00" nVehEntered="1"/>
    <interval begin="510.00" end="520.00" id="2" nVehContrib="1" flow="360.00" occupancy="8.03" speed="6.23" length="5.00" nVehEntered="1"/>