<?xml version="1.0" encoding="UTF-8"?>

<!-- generated on 07/27/18 13:44:11 by SUMO Version 0.32.0
<?xml version="1.0" encoding="UTF-8"?>

<configuration xmlns:xsi="http://www.w3.org/2001/XMLSchema-instance" xsi:noNamespaceSchemaLocation="http://sumo.dlr.de/xsd/sumoConfiguration.xsd">

    <input>
        <net-file value="data/cross.net.xml"/>
        <route-files value="data/cross.rou.xml"/>
        <additional-files value="data/cross.det.xml"/>
    </input>

    <output>
        <tripinfo-output value="tripinfo.xml"/>
    </output>

    <time>
        <begin value="0"/>
    </time>

    <report>
        <verbose value="true"/>
        <no-step-log value="true"/>
    </report>

    <traci_server>
        <remote-port value="50142"/>
    </traci_server>

</configuration>
-->

<tripinfos xmlns:xsi="http://www.w3.org/2001/XMLSchema-instance" xsi:noNamespaceSchemaLocation="http://sumo.dlr.de/xsd/tripinfo_file.xsd">
    <tripinfo id="left_0" depart="0.00" departLane="52o_0" departPos="5.10" departSpeed="0.00" departDelay="0.00" arrival="96.00" arrivalLane="51i_0" arrivalPos="10.00" arrivalSpeed="11.30" duration="96.00" routeLength="1015.10" waitSteps="0" timeLoss="19.48" rerouteNo="0" devices="tripinfo_left_0" vType="typeWE" speedFactor="1.00" vaporized=""/>
    <tripinfo id="left_1" depart="5.00" departLane="52o_0" departPos="5.10" departSpeed="0.00" departDelay="3.00" arrival="98.00" arrivalLane="51i_0" arrivalPos="10.00" arrivalSpeed="11.48" duration="93.00" routeLength="1015.10" waitSteps="0" timeLoss="16.80" rerouteNo="0" devices="tripinfo_left_1" vType="typeWE" speedFactor="1.00" vaporized=""/>
    <tripinfo id="right_2" depart="3.00" departLane="51o_0" departPos="5.10" departSpeed="0.00" departDelay="0.00" arrival="105.00" arrivalLane="52i_0" arrivalPos="10.00" arrivalSpeed="11.40" duration="102.00" routeLength="1015.10" waitSteps="0" timeLoss="25.89" rerouteNo="0" devices="tripinfo_right_2" vType="typeWE" speedFactor="1.00" vaporized=""/>
    <tripinfo id="right_3" depart="8.00" departLane="51o_0" departPos="5.10" departSpeed="0.00" departDelay="4.00" arrival="120.00" arrivalLane="52i_0" arrivalPos="10.00" arrivalSpeed="11.77" duration="112.00" routeLength="1015.10" waitSteps="9" timeLoss="36.23" rerouteNo="0" devices="tripinfo_right_3" vType="typeWE" speedFactor="1.00" vaporized=""/>
    <tripinfo id="left_4" depart="10.00" departLane="52o_0" departPos="5.10" departSpeed="0.00" departDelay="4.00" arrival="131.00" arrivalLane="51i_0" arrivalPos="10.00" arrivalSpeed="11.77" duration="121.00" routeLength="1015.10" waitSteps="18" timeLoss="44.49" rerouteNo="0" devices="tripinfo_left_4" vType="typeWE" speedFactor="1.00" vaporized=""/>
    <tripinfo id="left_6" depart="22.00" departLane="52o_0" departPos="5.10" departSpeed="0.00" departDelay="0.00" arrival="132.00" arrivalLane="51i_0" arrivalPos="10.00" arrivalSpeed="10.89" duration="110.00" routeLength="1015.10" waitSteps="6" timeLoss="34.02" rerouteNo="0" devices="tripinfo_left_6" vType="typeWE" speedFactor="1.00" vaporized=""/>
    <tripinfo id="right_5" depart="13.00" departLane="51o_0" departPos="5.10" departSpeed="0.00" departDelay="4.00" arrival="134.00" arrivalLane="52i_0" arrivalPos="10.00" arrivalSpeed="11.74" duration="121.00" routeLength="1015.10" waitSteps="15" timeLoss="45.19" rerouteNo="0" devices="tripinfo_right_5" vType="typeWE" speedFactor="1.00" vaporized=""/>
    <tripinfo id="left_7" depart="31.00" departLane="52o_0" departPos="5.10" departSpeed="0.00" departDelay="0.00" arrival="135.00" arrivalLane="51i_0" arrivalPos="10.00" arrivalSpeed="11.20" duration="104.00" routeLength="1015.10" waitSteps="1" timeLoss="27.59" rerouteNo="0" devices="tripinfo_left_7" vType="typeWE" speedFactor="1.00" vaporized=""/>
    <tripinfo id="right_10" depart="42.00" departLane="51o_0" departPos="5.10" departSpeed="0.00" departDelay="0.00" arrival="150.00" arrivalLane="52i_0" arrivalPos="10.00" arrivalSpeed="11.15" duration="108.00" routeLength="1015.10" waitSteps="5" timeLoss="31.75" rerouteNo="0" devices="tripinfo_right_10" vType="typeWE" speedFactor="1.00" vaporized=""/>
    <tripinfo id="right_13" depart="55.00" departLane="51o_0" departPos="5.10" departSpeed="0.00" departDelay="0.00" arrival="152.00" arrivalLane="52i_0" arrivalPos="10.00" arrivalSpeed="11.77" duration="97.00" routeLength="1015.10" waitSteps="0" timeLoss="20.76" rerouteNo="0" devices="tripinfo_right_13" vType="typeWE" speedFactor="1.00" vaporized=""/>
    <tripinfo id="left_8" depart="36.00" departLane="52o_0" departPos="5.10" departSpeed="0.00" departDelay="3.00" arrival="165.00" arrivalLane="51i_0" arrivalPos="10.00" arrivalSpeed="11.44" duration="129.00" routeLength="1015.10" waitSteps="21" timeLoss="52.65" rerouteNo="0" devices="tripinfo_left_8" vType="typeWE" speedFactor="1.00" vaporized=""/>
    <tripinfo id="left_9" depart="41.00" departLane="52o_0" departPos="5.10" departSpeed="0.00" departDelay="0.00" arrival="167.00" arrivalLane="51i_0" arrivalPos="10.00" arrivalSpeed="11.35" duration="126.00" routeLength="1015.10" waitSteps="21" timeLoss="50.16" rerouteNo="0" devices="tripinfo_left_9" vType="typeWE" speedFactor="1.00" vaporized=""/>
    <tripinfo id="left_11" depart="46.00" departLane="52o_0" departPos="5.10" departSpeed="0.00" departDelay="1.00" arrival="169.00" arrivalLane="51i_0" arrivalPos="10.00" arrivalSpeed="11.05" duration="123.00" routeLength="1015.10" waitSteps="19" timeLoss="46.97" rerouteNo="0" devices="tripinfo_left_11" vType="typeWE" speedFactor="1.00" vaporized=""/>
    <tripinfo id="left_12" depart="53.00" departLane="52o_0" departPos="5.10" departSpeed="0.00" departDelay="0.00" arrival="171.00" arrivalLane="51i_0" arrivalPos="10.00" arrivalSpeed="11.58" duration="118.00" routeLength="1015.10" waitSteps="15" timeLoss="42.13" rerouteNo="0" devices="tripinfo_left_12" vType="typeWE" speedFactor="1.00" vaporized=""/>
    <tripinfo id="right_14" depart="61.00" departLane="51o_0" departPos="5.10" departSpeed="0.00" departDelay="0.00" arrival="175.00" arrivalLane="52i_0" arrivalPos="10.00" arrivalSpeed="11.34" duration="114.00" routeLength="1015.10" waitSteps="13" timeLoss="37.72" rerouteNo="0" devices="tripinfo_right_14" vType="typeWE" speedFactor="1.00" vaporized=""/>
    <tripinfo id="down_18" depart="89.00" departLane="54o_0" departPos="7.10" departSpeed="0.00" departDelay="0.00" arrival="180.00" arrivalLane="53i_0" arrivalPos="10.00" arrivalSpeed="11.60" duration="91.00" routeLength="1013.10" waitSteps="0" timeLoss="19.72" rerouteNo="0" devices="tripinfo_down_18" vType="typeNS" speedFactor="1.00" vaporized=""/>
    <tripinfo id="right_15" depart="69.00" departLane="51o_0" departPos="5.10" departSpeed="0.00" departDelay="0.00" arrival="190.00" arrivalLane="52i_0" arrivalPos="10.00" arrivalSpeed="11.83" duration="121.00" routeLength="1015.10" waitSteps="14" timeLoss="44.87" rerouteNo="0" devices="tripinfo_right_15" vType="typeWE" speedFactor="1.00" vaporized=""/>
    <tripinfo id="left_17" depart="85.00" departLane="52o_0" departPos="5.10" departSpeed="0.00" departDelay="0.00" arrival="200.00" arrivalLane="51i_0" arrivalPos="10.00" arrivalSpeed="11.80" duration="115.00" routeLength="1015.10" waitSteps="12" timeLoss="38.66" rerouteNo="0" devices="tripinfo_left_17" vType="typeWE" speedFactor="1.00" vaporized=""/>
    <tripinfo id="left_21" depart="99.00" departLane="52o_0" departPos="5.10" departSpeed="0.00" departDelay="0.00" arrival="202.00" arrivalLane="51i_0" arrivalPos="10.00" arrivalSpeed="11.44" duration="103.00" routeLength="1015.10" waitSteps="1" timeLoss="26.87" rerouteNo="0" devices="tripinfo_left_21" vType="typeWE" speedFactor="1.00" vaporized=""/>
    <tripinfo id="right_16" depart="84.00" departLane="51o_0" departPos="5.10" departSpeed="0.00" departDelay="0.00" arrival="205.00" arrivalLane="52i_0" arrivalPos="10.00" arrivalSpeed="11.67" duration="121.00" routeLength="1015.10" waitSteps="12" timeLoss="45.10" rerouteNo="0" devices="tripinfo_right_16" vType="typeWE" speedFactor="1.00" vaporized=""/>
    <tripinfo id="down_19" depart="96.00" departLane="54o_0" departPos="7.10" departSpeed="0.00" departDelay="0.00" arrival="211.00" arrivalLane="53i_0" arrivalPos="10.00" arrivalSpeed="11.45" duration="115.00" routeLength="1013.10" waitSteps="14" timeLoss="43.32" rerouteNo="0" devices="tripinfo_down_19" vType="typeNS" speedFactor="1.00" vaporized=""/>
    <tripinfo id="right_20" depart="99.00" departLane="51o_0" departPos="5.10" departSpeed="0.00" departDelay="0.00" arrival="220.00" arrivalLane="52i_0" arrivalPos="10.00" arrivalSpeed="11.74" duration="121.00" routeLength="1015.10" waitSteps="13" timeLoss="44.98" rerouteNo="0" devices="tripinfo_right_20" vType="typeWE" speedFactor="1.00" vaporized=""/>
    <tripinfo id="right_22" depart="108.00" departLane="51o_0" departPos="5.10" departSpeed="0.00" departDelay="0.00" arrival="223.00" arrivalLane="52i_0" arrivalPos="10.00" arrivalSpeed="11.56" duration="115.00" routeLength="1015.10" waitSteps="7" timeLoss="38.64" rerouteNo="0" devices="tripinfo_right_22" vType="typeWE" speedFactor="1.00" vaporized=""/>
    <tripinfo id="right_23" depart="114.00" departLane="51o_0" departPos="5.10" departSpeed="0.00" departDelay="0.00" arrival="225.00" arrivalLane="52i_0" arrivalPos="10.00" arrivalSpeed="11.56" duration="111.00" routeLength="1015.10" waitSteps="7" timeLoss="34.99" rerouteNo="0" devices="tripinfo_right_23" vType="typeWE" speedFactor="1.00" vaporized=""/>
    <tripinfo id="right_25" depart="125.00" departLane="51o_0" departPos="5.10" departSpeed="0.00" departDelay="0.00" arrival="227.00" arrivalLane="52i_0" arrivalPos="10.00" arrivalSpeed="11.54" duration="102.00" routeLength="1015.10" waitSteps="0" timeLoss="25.94" rerouteNo="0" devices="tripinfo_right_25" vType="typeWE" speedFactor="1.00" vaporized=""/>
    <tripinfo id="right_30" depart="145.00" departLane="51o_0" departPos="5.10" departSpeed="0.00" departDelay="0.00" arrival="238.00" arrivalLane="52i_0" arrivalPos="10.00" arrivalSpeed="10.99" duration="93.00" routeLength="1015.10" waitSteps="0" timeLoss="16.88" rerouteNo="0" devices="tripinfo_right_30" vType="typeWE" speedFactor="1.00" vaporized=""/>
    <tripinfo id="left_26" depart="131.00" departLane="52o_0" departPos="5.10" departSpeed="0.00" departDelay="0.00" arrival="240.00" arrivalLane="51i_0" arrivalPos="10.00" arrivalSpeed="11.44" duration="109.00" routeLength="1015.10" waitSteps="7" timeLoss="32.81" rerouteNo="0" devices="tripinfo_left_26" vType="typeWE" speedFactor="1.00" vaporized=""/>
    <tripinfo id="left_27" depart="136.00" departLane="52o_0" departPos="5.10" departSpeed="0.00" departDelay="1.00" arrival="242.00" arrivalLane="51i_0" arrivalPos="10.00" arrivalSpeed="11.65" duration="106.00" routeLength="1015.10" waitSteps="4" timeLoss="30.05" rerouteNo="0" devices="tripinfo_left_27" vType="typeWE" speedFactor="1.00" vaporized=""/>
    <tripinfo id="left_28" depart="141.00" departLane="52o_0" departPos="5.10" departSpeed="0.00" departDelay="3.00" arrival="244.00" arrivalLane="51i_0" arrivalPos="10.00" arrivalSpeed="11.48" duration="103.00" routeLength="1015.10" waitSteps="1" timeLoss="26.82" rerouteNo="0" devices="tripinfo_left_28" vType="typeWE" speedFactor="1.00" vaporized=""/>
    <tripinfo id="down_24" depart="122.00" departLane="54o_0" departPos="7.10" departSpeed="0.00" departDelay="0.00" arrival="251.00" arrivalLane="53i_0" arrivalPos="10.00" arrivalSpeed="11.48" duration="129.00" routeLength="1013.10" waitSteps="29" timeLoss="57.54" rerouteNo="0" devices="tripinfo_down_24" vType="typeNS" speedFactor="1.00" vaporized=""/>
    <tripinfo id="right_35" depart="167.00" departLane="51o_0" departPos="5.10" departSpeed="0.00" departDelay="0.00" arrival="261.00" arrivalLane="52i_0" arrivalPos="10.00" arrivalSpeed="11.10" duration="94.00" routeLength="1015.10" waitSteps="0" timeLoss="17.94" rerouteNo="0" devices="tripinfo_right_35" vType="typeWE" speedFactor="1.00" vaporized=""/>
    <tripinfo id="left_29" depart="146.00" departLane="52o_0" departPos="5.10" departSpeed="0.00" departDelay="4.00" arrival="275.00" arrivalLane="51i_0" arrivalPos="10.00" arrivalSpeed="11.69" duration="129.00" routeLength="1015.10" waitSteps="22" timeLoss="52.98" rerouteNo="0" devices="tripinfo_left_29" vType="typeWE" speedFactor="1.00" vaporized=""/>
    <tripinfo id="left_31" depart="153.00" departLane="52o_0" departPos="5.10" departSpeed="0.00" departDelay="0.00" arrival="277.00" arrivalLane="51i_0" arrivalPos="10.00" arrivalSpeed="11.58" duration="124.00" routeLength="1015.10" waitSteps="22" timeLoss="47.84" rerouteNo="0" devices="tripinfo_left_31" vType="typeWE" speedFactor="1.00" vaporized=""/>
    <tripinfo id="left_32" depart="158.00" departLane="52o_0" departPos="5.10" departSpeed="0.00" departDelay="2.00" arrival="279.00" arrivalLane="51i_0" arrivalPos="10.00" arrivalSpeed="11.77" duration="121.00" routeLength="1015.10" waitSteps="18" timeLoss="44.87" rerouteNo="0" devices="tripinfo_left_32" vType="typeWE" speedFactor="1.00" vaporized=""/>
    <tripinfo id="left_33" depart="163.00" departLane="52o_0" departPos="5.10" departSpeed="0.00" departDelay="3.00" arrival="282.00" arrivalLane="51i_0" arrivalPos="10.00" arrivalSpeed="11.81" duration="119.00" routeLength="1015.10" waitSteps="15" timeLoss="42.76" rerouteNo="0" devices="tripinfo_left_33" vType="typeWE" speedFactor="1.00" vaporized=""/>
    <tripinfo id="left_34" depart="168.00" departLane="52o_0" departPos="5.10" departSpeed="0.00" departDelay="4.00" arrival="284.00" arrivalLane="51i_0" arrivalPos="10.00" arrivalSpeed="11.64" duration="116.00" routeLength="1015.10" waitSteps="11" timeLoss="39.69" rerouteNo="0" devices="tripinfo_left_34" vType="typeWE" speedFactor="1.00" vaporized=""/>
    <tripinfo id="left_37" depart="175.00" departLane="52o_0" departPos="5.10" departSpeed="0.00" departDelay="6.00" arrival="286.00" arrivalLane="51i_0" arrivalPos="10.00" arrivalSpeed="11.51" duration="111.00" routeLength="1015.10" waitSteps="7" timeLoss="34.42" rerouteNo="0" devices="tripinfo_left_37" vType="typeWE" speedFactor="1.00" vaporized=""/>
    <tripinfo id="left_38" depart="180.00" departLane="52o_0" departPos="5.10" departSpeed="0.00" departDelay="8.00" arrival="288.00" arrivalLane="51i_0" arrivalPos="10.00" arrivalSpeed="11.46" duration="108.00" routeLength="1015.10" waitSteps="3" timeLoss="31.32" rerouteNo="0" devices="tripinfo_left_38" vType="typeWE" speedFactor="1.00" vaporized=""/>
    <tripinfo id="right_36" depart="172.00" departLane="51o_0" departPos="5.10" departSpeed="0.00" departDelay="4.00" arrival="290.00" arrivalLane="52i_0" arrivalPos="10.00" arrivalSpeed="11.23" duration="118.00" routeLength="1015.10" waitSteps="17" timeLoss="42.00" rerouteNo="0" devices="tripinfo_right_36" vType="typeWE" speedFactor="1.00" vaporized=""/>
    <tripinfo id="left_43" depart="194.00" departLane="52o_0" departPos="5.10" departSpeed="0.00" departDelay="0.00" arrival="291.00" arrivalLane="51i_0" arrivalPos="10.00" arrivalSpeed="11.60" duration="97.00" routeLength="1015.10" waitSteps="0" timeLoss="21.12" rerouteNo="0" devices="tripinfo_left_43" vType="typeWE" speedFactor="1.00" vaporized=""/>
    <tripinfo id="right_40" depart="177.00" departLane="51o_0" departPos="5.10" departSpeed="0.00" departDelay="1.00" arrival="292.00" arrivalLane="52i_0" arrivalPos="10.00" arrivalSpeed="11.69" duration="115.00" routeLength="1015.10" waitSteps="13" timeLoss="38.81" rerouteNo="0" devices="tripinfo_right_40" vType="typeWE" speedFactor="1.00" vaporized=""/>
    <tripinfo id="right_41" depart="182.00" departLane="51o_0" departPos="5.10" departSpeed="0.00" departDelay="1.00" arrival="294.00" arrivalLane="52i_0" arrivalPos="10.00" arrivalSpeed="11.44" duration="112.00" routeLength="1015.10" waitSteps="9" timeLoss="36.21" rerouteNo="0" devices="tripinfo_right_41" vType="typeWE" speedFactor="1.00" vaporized=""/>
    <tripinfo id="left_44" depart="199.00" departLane="52o_0" departPos="5.10" departSpeed="0.00" departDelay="3.00" arrival="295.00" arrivalLane="51i_0" arrivalPos="10.00" arrivalSpeed="11.19" duration="96.00" routeLength="1015.10" waitSteps="0" timeLoss="20.17" rerouteNo="0" devices="tripinfo_left_44" vType="typeWE" speedFactor="1.00" vaporized=""/>
    <tripinfo id="right_42" depart="187.00" departLane="51o_0" departPos="5.10" departSpeed="0.00" departDelay="4.00" arrival="297.00" arrivalLane="52i_0" arrivalPos="10.00" arrivalSpeed="11.66" duration="110.00" routeLength="1015.10" waitSteps="6" timeLoss="33.40" rerouteNo="0" devices="tripinfo_right_42" vType="typeWE" speedFactor="1.00" vaporized=""/>
    <tripinfo id="down_39" depart="172.00" departLane="54o_0" departPos="7.10" departSpeed="0.00" departDelay="0.00" arrival="305.00" arrivalLane="53i_0" arrivalPos="10.00" arrivalSpeed="11.32" duration="133.00" routeLength="1013.10" waitSteps="34" timeLoss="61.01" rerouteNo="0" devices="tripinfo_down_39" vType="typeNS" speedFactor="1.00" vaporized=""/>
    <tripinfo id="right_46" depart="202.00" departLane="51o_0" departPos="5.10" departSpeed="0.00" departDelay="2.00" arrival="325.00" arrivalLane="52i_0" arrivalPos="10.00" arrivalSpeed="11.43" duration="123.00" routeLength="1015.10" waitSteps="19" timeLoss="46.70" rerouteNo="0" devices="tripinfo_right_46" vType="typeWE" speedFactor="1.00" vaporized=""/>
    <tripinfo id="right_48" depart="217.00" departLane="51o_0" departPos="5.10" departSpeed="0.00" departDelay="0.00" arrival="328.00" arrivalLane="52i_0" arrivalPos="10.00" arrivalSpeed="11.55" duration="111.00" routeLength="1015.10" waitSteps="9" timeLoss="34.39" rerouteNo="0" devices="tripinfo_right_48" vType="typeWE" speedFactor="1.00" vaporized=""/>
    <tripinfo id="right_50" depart="228.00" departLane="51o_0" departPos="5.10" departSpeed="0.00" departDelay="0.00" arrival="329.00" arrivalLane="52i_0" arrivalPos="10.00" arrivalSpeed="10.99" duration="101.00" routeLength="1015.10" waitSteps="0" timeLoss="24.96" rerouteNo="0" devices="tripinfo_right_50" vType="typeWE" speedFactor="1.00" vaporized=""/>
    <tripinfo id="left_45" depart="205.00" departLane="52o_0" departPos="5.10" departSpeed="0.00" departDelay="6.00" arrival="350.00" arrivalLane="51i_0" arrivalPos="10.00" arrivalSpeed="11.59" duration="145.00" routeLength="1015.10" waitSteps="44" timeLoss="68.47" rerouteNo="0" devices="tripinfo_left_45" vType="typeWE" speedFactor="1.00" vaporized=""/>
    <tripinfo id="left_47" depart="212.00" departLane="52o_0" departPos="5.10" departSpeed="0.00" departDelay="0.00" arrival="352.00" arrivalLane="51i_0" arrivalPos="10.00" arrivalSpeed="11.37" duration="140.00" routeLength="1015.10" waitSteps="37" timeLoss="63.61" rerouteNo="0" devices="tripinfo_left_47" vType="typeWE" speedFactor="1.00" vaporized=""/>
    <tripinfo id="left_49" depart="220.00" departLane="52o_0" departPos="5.10" departSpeed="0.00" departDelay="1.00" arrival="354.00" arrivalLane="51i_0" arrivalPos="10.00" arrivalSpeed="11.44" duration="134.00" routeLength="1015.10" waitSteps="31" timeLoss="57.44" rerouteNo="0" devices="tripinfo_left_49" vType="typeWE" speedFactor="1.00" vaporized=""/>
    <tripinfo id="right_53" depart="240.00" departLane="51o_0" departPos="5.10" departSpeed="0.00" departDelay="0.00" arrival="355.00" arrivalLane="52i_0" arrivalPos="10.00" arrivalSpeed="11.55" duration="115.00" routeLength="1015.10" waitSteps="14" timeLoss="39.19" rerouteNo="0" devices="tripinfo_right_53" vType="typeWE" speedFactor="1.00" vaporized=""/>
    <tripinfo id="left_51" depart="234.00" departLane="52o_0" departPos="5.10" departSpeed="0.00" departDelay="0.00" arrival="356.00" arrivalLane="51i_0" arrivalPos="10.00" arrivalSpeed="11.45" duration="122.00" routeLength="1015.10" waitSteps="19" timeLoss="45.77" rerouteNo="0" devices="tripinfo_left_51" vType="typeWE" speedFactor="1.00" vaporized=""/>
    <tripinfo id="left_52" depart="239.00" departLane="52o_0" departPos="5.10" departSpeed="0.00" departDelay="1.00" arrival="358.00" arrivalLane="51i_0" arrivalPos="10.00" arrivalSpeed="11.04" duration="119.00" routeLength="1015.10" waitSteps="15" timeLoss="42.91" rerouteNo="0" devices="tripinfo_left_52" vType="typeWE" speedFactor="1.00" vaporized=""/>
    <tripinfo id="right_56" depart="288.00" departLane="51o_0" departPos="5.10" departSpeed="0.00" departDelay="4.00" arrival="400.00" arrivalLane="52i_0" arrivalPos="10.00" arrivalSpeed="11.47" duration="112.00" routeLength="1015.10" waitSteps="10" timeLoss="35.55" rerouteNo="0" devices="tripinfo_right_56" vType="typeWE" speedFactor="1.00" vaporized=""/>
    <tripinfo id="right_57" depart="293.00" departLane="51o_0" departPos="5.10" departSpeed="0.00" departDelay="7.00" arrival="402.00" arrivalLane="52i_0" arrivalPos="10.00" arrivalSpeed="11.59" duration="109.00" routeLength="1015.10" waitSteps="6" timeLoss="33.02" rerouteNo="0" devices="tripinfo_right_57" vType="typeWE" speedFactor="1.00" vaporized=""/>
    <tripinfo id="right_58" depart="298.00" departLane="51o_0" departPos="5.10" departSpeed="0.00" departDelay="10.00" arrival="404.00" arrivalLane="52i_0" arrivalPos="10.00" arrivalSpeed="11.75" duration="106.00" routeLength="1015.10" waitSteps="4" timeLoss="29.85" rerouteNo="0" devices="tripinfo_right_58" vType="typeWE" speedFactor="1.00" vaporized=""/>
    <tripinfo id="left_54" depart="272.00" departLane="52o_0" departPos="5.10" departSpeed="0.00" departDelay="0.00" arrival="415.00" arrivalLane="51i_0" arrivalPos="10.00" arrivalSpeed="11.17" duration="143.00" routeLength="1015.10" waitSteps="41" timeLoss="67.00" rerouteNo="0" devices="tripinfo_left_54" vType="typeWE" speedFactor="1.00" vaporized=""/>
    <tripinfo id="left_55" depart="277.00" departLane="52o_0" departPos="5.10" departSpeed="0.00" departDelay="2.00" arrival="417.00" arrivalLane="51i_0" arrivalPos="10.00" arrivalSpeed="11.41" duration="140.00" routeLength="1015.10" waitSteps="37" timeLoss="63.97" rerouteNo="0" devices="tripinfo_left_55" vType="typeWE" speedFactor="1.00" vaporized=""/>
    <tripinfo id="right_59" depart="303.00" departLane="51o_0" departPos="5.10" departSpeed="0.00" departDelay="12.00" arrival="420.00" arrivalLane="52i_0" arrivalPos="10.00" arrivalSpeed="11.46" duration="117.00" routeLength="1015.10" waitSteps="8" timeLoss="40.99" rerouteNo="0" devices="tripinfo_right_59" vType="typeWE" speedFactor="1.00" vaporized=""/>
    <tripinfo id="down_61" depart="318.00" departLane="54o_0" departPos="7.10" departSpeed="0.00" departDelay="0.00" arrival="424.00" arrivalLane="53i_0" arrivalPos="10.00" arrivalSpeed="11.58" duration="106.00" routeLength="1013.10" waitSteps="6" timeLoss="34.83" rerouteNo="0" devices="tripinfo_down_61" vType="typeNS" speedFactor="1.00" vaporized=""/>
    <tripinfo id="down_63" depart="331.00" departLane="54o_0" departPos="7.10" departSpeed="0.00" departDelay="0.00" arrival="427.00" arrivalLane="53i_0" arrivalPos="10.00" arrivalSpeed="11.51" duration="96.00" routeLength="1013.10" waitSteps="0" timeLoss="24.05" rerouteNo="0" devices="tripinfo_down_63" vType="typeNS" speedFactor="1.00" vaporized=""/>
    <tripinfo id="right_60" depart="308.00" departLane="51o_0" departPos="5.10" departSpeed="0.00" departDelay="14.00" arrival="434.00" arrivalLane="52i_0" arrivalPos="10.00" arrivalSpeed="11.55" duration="126.00" routeLength="1015.10" waitSteps="14" timeLoss="50.23" rerouteNo="0" devices="tripinfo_right_60" vType="typeWE" speedFactor="1.00" vaporized=""/>
    <tripinfo id="left_65" depart="339.00" departLane="52o_0" departPos="5.10" departSpeed="0.00" departDelay="0.00" arrival="445.00" arrivalLane="51i_0" arrivalPos="10.00" arrivalSpeed="11.68" duration="106.00" routeLength="1015.10" waitSteps="4" timeLoss="29.44" rerouteNo="0" devices="tripinfo_left_65" vType="typeWE" speedFactor="1.00" vaporized=""/>
    <tripinfo id="left_67" depart="344.00" departLane="52o_0" departPos="5.10" departSpeed="0.00" departDelay="0.00" arrival="448.00" arrivalLane="51i_0" arrivalPos="10.00" arrivalSpeed="11.73" duration="104.00" routeLength="1015.10" waitSteps="0" timeLoss="27.48" rerouteNo="0" devices="tripinfo_left_67" vType="typeWE" speedFactor="1.00" vaporized=""/>
    <tripinfo id="left_69" depart="349.00" departLane="52o_0" departPos="5.10" departSpeed="0.00" departDelay="3.00" arrival="450.00" arrivalLane="51i_0" arrivalPos="10.00" arrivalSpeed="11.28" duration="101.00" routeLength="1015.10" waitSteps="0" timeLoss="24.42" rerouteNo="0" devices="tripinfo_left_69" vType="typeWE" speedFactor="1.00" vaporized=""/>
    <tripinfo id="right_62" depart="322.00" departLane="51o_0" departPos="5.10" departSpeed="0.00" departDelay="0.00" arrival="455.00" arrivalLane="52i_0" arrivalPos="10.00" arrivalSpeed="11.13" duration="133.00" routeLength="1015.10" waitSteps="22" timeLoss="56.76" rerouteNo="0" devices="tripinfo_right_62" vType="typeWE" speedFactor="1.00" vaporized=""/>
    <tripinfo id="down_64" depart="337.00" departLane="54o_0" departPos="7.10" departSpeed="0.00" departDelay="0.00" arrival="460.00" arrivalLane="53i_0" arrivalPos="10.00" arrivalSpeed="11.72" duration="123.00" routeLength="1013.10" waitSteps="23" timeLoss="51.35" rerouteNo="0" devices="tripinfo_down_64" vType="typeNS" speedFactor="1.00" vaporized=""/>
    <tripinfo id="down_68" depart="344.00" departLane="54o_0" departPos="7.10" departSpeed="0.00" departDelay="0.00" arrival="462.00" arrivalLane="53i_0" arrivalPos="10.00" arrivalSpeed="11.40" duration="118.00" routeLength="1013.10" waitSteps="18" timeLoss="46.57" rerouteNo="0" devices="tripinfo_down_68" vType="typeNS" speedFactor="1.00" vaporized=""/>
    <tripinfo id="right_66" depart="342.00" departLane="51o_0" departPos="5.10" departSpeed="0.00" departDelay="0.00" arrival="471.00" arrivalLane="52i_0" arrivalPos="10.00" arrivalSpeed="11.31" duration="129.00" routeLength="1015.10" waitSteps="19" timeLoss="52.84" rerouteNo="0" devices="tripinfo_right_66" vType="typeWE" speedFactor="1.00" vaporized=""/>
    <tripinfo id="left_75" depart="388.00" departLane="52o_0" departPos="5.10" departSpeed="0.00" departDelay="0.00" arrival="482.00" arrivalLane="51i_0" arrivalPos="10.00" arrivalSpeed="11.58" duration="94.00" routeLength="1015.10" waitSteps="0" timeLoss="17.63" rerouteNo="0" devices="tripinfo_left_75" vType="typeWE" speedFactor="1.00" vaporized=""/>
    <tripinfo id="right_70" depart="356.00" departLane="51o_0" departPos="5.10" departSpeed="0.00" departDelay="2.00" arrival="485.00" arrivalLane="52i_0" arrivalPos="10.00" arrivalSpeed="11.69" duration="129.00" routeLength="1015.10" waitSteps="17" timeLoss="52.73" rerouteNo="0" devices="tripinfo_right_70" vType="typeWE" speedFactor="1.00" vaporized=""/>
    <tripinfo id="left_76" depart="393.00" departLane="52o_0" departPos="5.10" departSpeed="0.00" departDelay="4.00" arrival="486.00" arrivalLane="51i_0" arrivalPos="10.00" arrivalSpeed="11.40" duration="93.00" routeLength="1015.10" waitSteps="0" timeLoss="16.74" rerouteNo="0" devices="tripinfo_left_76" vType="typeWE" speedFactor="1.00" vaporized=""/>
    <tripinfo id="right_71" depart="375.00" departLane="51o_0" departPos="5.10" departSpeed="0.00" departDelay="0.00" arrival="487.00" arrivalLane="52i_0" arrivalPos="10.00" arrivalSpeed="11.42" duration="112.00" routeLength="1015.10" waitSteps="6" timeLoss="35.51" rerouteNo="0" devices="tripinfo_right_71" vType="typeWE" speedFactor="1.00" vaporized=""/>
    <tripinfo id="right_74" depart="383.00" departLane="51o_0" departPos="5.10" departSpeed="0.00" departDelay="0.00" arrival="489.00" arrivalLane="52i_0" arrivalPos="10.00" arrivalSpeed="11.22" duration="106.00" routeLength="1015.10" waitSteps="4" timeLoss="29.78" rerouteNo="0" devices="tripinfo_right_74" vType="typeWE" speedFactor="1.00" vaporized=""/>
    <tripinfo id="right_78" depart="394.00" departLane="51o_0" departPos="5.10" departSpeed="0.00" departDelay="0.00" arrival="491.00" arrivalLane="52i_0" arrivalPos="10.00" arrivalSpeed="11.80" duration="97.00" routeLength="1015.10" waitSteps="0" timeLoss="20.78" rerouteNo="0" devices="tripinfo_right_78" vType="typeWE" speedFactor="1.00" vaporized=""/>
    <tripinfo id="down_72" depart="377.00" departLane="54o_0" departPos="7.10" departSpeed="0.00" departDelay="0.00" arrival="500.00" arrivalLane="53i_0" arrivalPos="10.00" arrivalSpeed="11.65" duration="123.00" routeLength="1013.10" waitSteps="24" timeLoss="51.37" rerouteNo="0" devices="tripinfo_down_72" vType="typeNS" speedFactor="1.00" vaporized=""/>
    <tripinfo id="down_73" depart="383.00" departLane="54o_0" departPos="7.10" departSpeed="0.00" departDelay="4.00" arrival="503.00" arrivalLane="53i_0" arrivalPos="10.00" arrivalSpeed="11.39" duration="120.00" routeLength="1013.10" waitSteps="19" timeLoss="48.18" rerouteNo="0" devices="tripinfo_down_73" vType="typeNS" speedFactor="1.00" vaporized=""/>
    <tripinfo id="right_79" depart="399.00" departLane="51o_0" departPos="5.10" departSpeed="0.00" departDelay="4.00" arrival="511.00" arrivalLane="52i_0" arrivalPos="10.00" arrivalSpeed="11.52" duration="112.00" routeLength="1015.10" waitSteps="9" timeLoss="36.21" rerouteNo="0" devices="tripinfo_right_79" vType="typeWE" speedFactor="1.00" vaporized=""/>
    <tripinfo id="left_77" depart="400.00" departLane="52o_0" departPos="5.10" departSpeed="0.00" departDelay="9.00" arrival="520.00" arrivalLane="51i_0" arrivalPos="10.00" arrivalSpeed="11.31" duration="120.00" routeLength="1015.10" waitSteps="17" timeLoss="44.11" rerouteNo="0" devices="tripinfo_left_77" vType="typeWE" speedFactor="1.00" vaporized=""/>
    <tripinfo id="left_82" depart="413.00" departLane="52o_0" departPos="5.10" departSpeed="0.00" departDelay="0.00" arrival="522.00" arrivalLane="51i_0" arrivalPos="10.00" arrivalSpeed="11.70" duration="109.00" routeLength="1015.10" waitSteps="7" timeLoss="33.10" rerouteNo="0" devices="tripinfo_left_82" vType="typeWE" speedFactor="1.00" vaporized=""/>